# vtk DataFile Version 3.0
file is written by INMOST
ASCII
DATASET UNSTRUCTURED_GRID
POINTS 107 double
0 0 0 
1 0 0 
1 1 0 
0 1 0 
0.125 0 0 
0.25 0 0 
0.375 0 0 
0.5 0 0 
0.625 0 0 
0.75 0 0 
0.875 0 0 
1 0.125 0 
1 0.25 0 
1 0.375 0 
1 0.5 0 
1 0.625 0 
1 0.75 0 
1 0.875 0 
0.875 1 0 
0.75 1 0 
0.625 1 0 
0.5 1 0 
0.375 1 0 
0.25 1 0 
0.125 1 0 
0 0.875 0 
0 0.75 0 
0 0.625 0 
0 0.5 0 
0 0.375 0 
0 0.25 0 
0 0.125 0 
0.520541 0.538996 0 
0.670894 0.723036 0 
0.290122 0.308532 0 
0.693553 0.264089 0 
0.320238 0.716339 0 
0.7967 0.507197 0 
0.519486 0.210548 0 
0.242502 0.48417 0 
0.518924 0.783133 0 
0.809637 0.187803 0 
0.18898 0.194072 0 
0.800875 0.800852 0 
0.203663 0.805481 0 
0.460846 0.348487 0 
0.360119 0.568452 0 
0.645814 0.567923 0 
0.830816 0.364485 0 
0.853661 0.616831 0 
0.61124 0.82967 0 
0.3949 0.858552 0 
0.389424 0.142676 0 
0.615408 0.164661 0 
0.137739 0.387144 0 
0.174297 0.593042 0 
0.626317 0.421726 0 
0.462376 0.634949 0 
0.36151 0.405853 0 
0.569761 0.309557 0 
0.554109 0.678658 0 
0.915084 0.482299 0 
0.113067 0.486524 0 
0.574183 0.900799 0 
0.574201 0.0966135 0 
0.422678 0.744757 0 
0.715017 0.394224 0 
0.896004 0.264401 0 
0.695011 0.875611 0 
0.880242 0.683605 0 
0.282545 0.0984373 0 
0.698806 0.119519 0 
0.126664 0.682288 0 
0.287141 0.902655 0 
0.0955889 0.285562 0 
0.777313 0.604024 0 
0.41694 0.252456 0 
0.243331 0.624586 0 
0.500689 0.414996 0 
0.498923 0.888607 0 
0.497596 0.109468 0 
0.88548 0.551744 0 
0.104064 0.563922 0 
0.438731 0.478523 0 
0.106282 0.107371 0 
0.893016 0.106345 0 
0.891692 0.890848 0 
0.109075 0.892108 0 
0.727029 0.804591 0 
0.288354 0.177649 0 
0.818465 0.276137 0 
0.224835 0.703321 0 
0.726987 0.481524 0 
0.30126 0.826136 0 
0.783494 0.701338 0 
0.1699 0.291816 0 
0.737611 0.186296 0 
0.577197 0.594198 0 
0.221084 0.393984 0 
0.895032 0.781077 0 
0.210111 0.0979651 0 
0.215021 0.902167 0 
0.0960821 0.212516 0 
0.788334 0.100337 0 
0.108136 0.781949 0 
0.90124 0.206849 0 
0.784933 0.894763 0 
CELLS 90 450
4 56 47 97 32 4 35 59 38 53 4 33 50 40 60 4 36 46 57 65 
4 71 53 64 8 4 68 20 63 50 4 39 58 83 46 4 79 51 65 40 
4 57 46 83 32 4 72 27 82 55 4 69 49 81 15 4 58 34 76 45 
4 59 45 76 38 4 66 35 90 48 4 80 38 76 52 4 46 77 55 39 
4 81 49 75 37 4 53 38 80 64 4 50 63 79 40 4 55 82 62 39 
4 48 61 81 37 4 59 35 66 56 4 48 13 14 61 4 54 62 28 29 
4 46 36 91 77 4 52 76 34 89 4 51 93 36 65 4 56 32 83 78 
4 60 40 65 57 4 4 84 31 0 4 10 1 11 85 4 17 2 18 86 
4 25 87 24 3 4 33 60 97 47 4 78 83 58 45 4 34 98 54 95 
4 54 98 39 62 4 32 97 60 57 4 47 75 94 33 4 45 59 56 78 
4 37 75 47 92 4 51 79 21 22 4 52 6 7 80 4 34 58 39 98 
4 20 21 79 63 4 27 28 62 82 4 8 64 80 7 4 15 81 61 14 
4 13 48 90 67 4 6 52 89 70 4 33 88 68 50 4 77 91 72 55 
4 48 37 92 66 4 47 56 66 92 4 95 74 102 42 4 93 73 101 44 
4 96 71 103 41 4 94 69 99 43 4 100 70 89 42 4 105 67 90 41 
4 104 72 91 44 4 106 68 88 43 4 6 70 100 5 4 13 67 105 12 
4 8 9 103 71 4 29 30 102 74 4 27 72 104 26 4 20 68 106 19 
4 15 16 99 69 4 22 23 101 73 4 22 73 93 51 4 75 49 69 94 
4 29 74 95 54 4 35 53 71 96 4 103 85 105 41 4 102 84 100 42 
4 99 86 106 43 4 101 87 104 44 4 42 89 34 95 4 43 88 33 94 
4 44 91 36 93 4 41 90 35 96 4 16 17 86 99 4 9 10 85 103 
4 5 100 84 4 4 26 104 87 25 4 30 31 84 102 4 23 24 87 101 
4 12 105 85 11 4 19 106 86 18 
CELL_TYPES 90
9
9
9
9
9
9
9
9
9
9
9
9
9
9
9
9
9
9
9
9
9
9
9
9
9
9
9
9
9
9
9
9
9
9
9
9
9
9
9
9
9
9
9
9
9
9
9
9
9
9
9
9
9
9
9
9
9
9
9
9
9
9
9
9
9
9
9
9
9
9
9
9
9
9
9
9
9
9
9
9
9
9
9
9
9
9
9
9
9
9
CELL_DATA 90
SCALARS U double 1
LOOKUP_TABLE default
0.953647 
0.645244 
0.67199 
0.816867 
0.271005 
0.280795 
0.890933 
0.534608 
0.970552 
0.292207 
0.274062 
0.800873 
0.770779 
0.574606 
0.527493 
0.702144 
0.501309 
0.435054 
0.44669 
0.475173 
0.433042 
0.789085 
0.193534 
0.191911 
0.695495 
0.565167 
0.56233 
0.991174 
0.789006 
0.0327869 
0.0327415 
0.0333214 
0.0332519 
0.848187 
0.945208 
0.530315 
0.522027 
0.935282 
0.688649 
0.915241 
0.730167 
0.194036 
0.193315 
0.729117 
0.162658 
0.168101 
0.159229 
0.154781 
0.295171 
0.279977 
0.482202 
0.505433 
0.654375 
0.84206 
0.29256 
0.30454 
0.309321 
0.349576 
0.297871 
0.292323 
0.359305 
0.330869 
0.118203 
0.120275 
0.133911 
0.115785 
0.144956 
0.140432 
0.138766 
0.118197 
0.27886 
0.46761 
0.270458 
0.454622 
0.209002 
0.210357 
0.225461 
0.223537 
0.464276 
0.494897 
0.497916 
0.443097 
0.0874562 
0.0837556 
0.0829716 
0.0888119 
0.0821523 
0.0839592 
0.0827883 
0.0873809 
SCALARS U_approx double 1
LOOKUP_TABLE default
0.943647 
0.655244 
0.66199 
0.826867 
0.261005 
0.290795 
0.880933 
0.544608 
0.960552 
0.302207 
0.264062 
0.810873 
0.760779 
0.584606 
0.517493 
0.712144 
0.491309 
0.445054 
0.43669 
0.485173 
0.423042 
0.799085 
0.183534 
0.201911 
0.685495 
0.575167 
0.55233 
1.00117 
0.779006 
0.0427869 
0.0227415 
0.0433214 
0.0232519 
0.858187 
0.935208 
0.540315 
0.512027 
0.945282 
0.678649 
0.925241 
0.720167 
0.204036 
0.183315 
0.739117 
0.152658 
0.178101 
0.149229 
0.164781 
0.285171 
0.289977 
0.472202 
0.515433 
0.644375 
0.85206 
0.28256 
0.31454 
0.299321 
0.359576 
0.287871 
0.302323 
0.349305 
0.340869 
0.108203 
0.130275 
0.123911 
0.125785 
0.134956 
0.150432 
0.128766 
0.128197 
0.26886 
0.47761 
0.260458 
0.464622 
0.199002 
0.220357 
0.215461 
0.233537 
0.454276 
0.504897 
0.487916 
0.453097 
0.0774562 
0.0937556 
0.0729716 
0.0988119 
0.0721523 
0.0939592 
0.0727883 
0.0973809 
SCALARS X_Coord double 1
LOOKUP_TABLE default
0.592467 
0.599552 
0.588792 
0.391353 
0.628354 
0.626358 
0.350716 
0.458856 
0.445442 
0.101256 
0.904846 
0.382355 
0.491759 
0.764463 
0.455862 
0.255062 
0.828289 
0.551673 
0.550817 
0.158483 
0.85702 
0.651162 
0.936475 
0.0627017 
0.287131 
0.34621 
0.359769 
0.521569 
0.489522 
0.0578205 
0.942004 
0.941673 
0.0585186 
0.612003 
0.440444 
0.204711 
0.178598 
0.528555 
0.719379 
0.539403 
0.736703 
0.442206 
0.440505 
0.278805 
0.549527 
0.0542829 
0.549199 
0.950141 
0.886321 
0.333831 
0.676043 
0.192282 
0.76738 
0.678534 
0.137638 
0.251771 
0.758597 
0.839911 
0.242498 
0.856337 
0.165825 
0.751962 
0.279414 
0.949311 
0.715535 
0.0479177 
0.0587 
0.713736 
0.943819 
0.281791 
0.339575 
0.823677 
0.100807 
0.686344 
0.848057 
0.150364 
0.843133 
0.158974 
0.234339 
0.745573 
0.262499 
0.764817 
0.946681 
0.826587 
0.172848 
0.0543026 
0.050591 
0.174774 
0.948564 
0.825406 
POINT_DATA 107
SCALARS Cell_count int 1
LOOKUP_TABLE default
1 
1 
1 
1 
2 
2 
3 
2 
3 
2 
2 
2 
2 
3 
2 
3 
2 
2 
2 
2 
3 
2 
3 
2 
2 
2 
2 
3 
2 
3 
2 
2 
4 
5 
5 
5 
4 
4 
4 
5 
4 
4 
4 
4 
4 
4 
5 
5 
5 
3 
4 
4 
4 
4 
4 
4 
5 
4 
4 
4 
4 
3 
4 
3 
3 
4 
4 
3 
4 
4 
3 
4 
4 
3 
3 
4 
4 
3 
3 
4 
4 
4 
3 
4 
4 
4 
4 
4 
3 
4 
4 
4 
3 
4 
4 
4 
3 
3 
3 
4 
4 
4 
4 
4 
4 
4 
4 
