# vtk DataFile Version 3.0
file is written by INMOST
ASCII
DATASET UNSTRUCTURED_GRID
POINTS 258 double
-8.10913e-12 -7.3392e-12 0 
0.100816 -6.12152e-12 0 
0.104242 0.0519091 0 
0.0641803 0.0954643 0 
-6.62161e-12 0.0897494 0 
0.21206 -7.09417e-12 0 
0.208477 0.0633027 0 
0.166666 0.0887913 0 
0.158843 0.144049 0 
0.0920924 0.154458 0 
0.0735759 0.188976 0 
-7.57146e-12 0.193384 0 
-7.57146e-12 0.283421 0 
0.310592 -7.09417e-12 0 
0.260987 0.0983053 0 
0.309896 0.0732218 0 
0.254312 0.157857 0 
0.18126 0.168595 0 
0.170695 0.233877 0 
0.10101 0.239757 0 
0.0799378 0.284572 0 
-7.35012e-12 0.377944 0 
-6.91228e-12 0.478673 0 
-6.91226e-12 0.573866 0 
0.102145 0.327844 0 
0.0622716 0.380601 0 
0.140585 0.336006 0 
0.410103 -6.64676e-12 0 
0.359605 0.103156 0 
0.412139 0.0590844 0 
0.363936 0.131812 0 
0.277061 0.18302 0 
0.32978 0.179599 0 
0.194552 0.260835 0 
0.261757 0.241246 0 
0.191391 0.296741 0 
0.514825 -6.64676e-12 0 
0.609995 -7.40248e-12 0 
0.0939115 0.434293 0 
0.065709 0.477565 0 
-7.09179e-12 0.666548 0 
-7.31578e-12 0.755398 0 
-7.4637e-12 0.839532 0 
-6.84617e-12 0.918801 0 
-6.84618e-12 1 0 
0.0957829 0.530973 0 
0.0697937 0.573068 0 
0.097206 0.625784 0 
0.0722366 0.66549 0 
0.144544 0.432115 0 
0.166995 0.398803 0 
0.224336 0.394265 0 
0.244329 0.343871 0 
0.470817 0.0948939 0 
0.512265 0.0680959 0 
0.465762 0.145246 0 
0.434389 0.166171 0 
0.426036 0.217732 0 
0.367346 0.238237 0 
0.301561 0.284933 0 
0.355758 0.268384 0 
0.286027 0.330801 0 
0.568881 0.0993102 0 
0.60934 0.0774056 0 
0.70379 -7.15685e-12 0 
0.654791 0.0995201 0 
0.704918 0.0736675 0 
0.801843 -7.15685e-12 0 
0.900723 -7.08556e-12 0 
1 -7.0721e-12 0 
0.149661 0.528715 0 
0.173798 0.488143 0 
0.0991778 0.722785 0 
0.0776118 0.754609 0 
0.0984305 0.81788 0 
0.0817736 0.839655 0 
0.0944439 0.908206 0 
0.0807638 0.922408 0 
0.0839542 1 0 
0.152964 0.624786 0 
0.178846 0.580481 0 
0.152206 0.720462 0 
0.180873 0.674456 0 
0.231179 0.484797 0 
0.253446 0.434943 0 
0.308794 0.429648 0 
0.329565 0.376139 0 
0.529239 0.179697 0 
0.561531 0.161521 0 
0.518921 0.236943 0 
0.465816 0.254973 0 
0.395363 0.320631 0 
0.453963 0.305694 0 
0.379139 0.36514 0 
0.623844 0.192404 0 
0.658808 0.17258 0 
0.747609 0.0987964 0 
0.802137 0.068514 0 
0.701854 0.186881 0 
0.750585 0.148643 0 
0.843444 0.0956583 0 
0.900785 0.0754261 0 
0.921273 0.0905918 0 
1 0.0780634 0 
0.259354 0.527355 0 
0.234618 0.578506 0 
0.158878 0.817122 0 
0.187654 0.777905 0 
0.187041 0.883406 0 
0.155427 0.913298 0 
0.174264 1 0 
0.26319 0.621953 0 
0.235732 0.675352 0 
0.260521 0.714643 0 
0.226455 0.775825 0 
0.33933 0.468988 0 
0.316329 0.524856 0 
0.415582 0.408138 0 
0.396477 0.464053 0 
0.614601 0.256846 0 
0.560408 0.273135 0 
0.488947 0.343826 0 
0.546673 0.331367 0 
0.473274 0.398195 0 
0.651192 0.287081 0 
0.709773 0.274548 0 
0.722814 0.24856 0 
0.837103 0.166691 0 
0.811454 0.181114 0 
0.799341 0.236523 0 
0.898534 0.187488 0 
0.925312 0.165404 0 
1 0.177114 0 
0.226306 1 0 
0.318456 0.620799 0 
0.343904 0.562821 0 
0.234071 0.887584 0 
0.26847 0.820487 0 
0.25062 0.909617 0 
0.301871 0.816915 0 
0.319028 0.720522 0 
0.346374 0.659145 0 
0.33474 0.745876 0 
0.403568 0.561283 0 
0.423149 0.497026 0 
0.505296 0.435694 0 
0.485783 0.492748 0 
0.636641 0.359195 0 
0.58212 0.367655 0 
0.56147 0.428225 0 
0.662757 0.382088 0 
0.726266 0.372852 0 
0.743667 0.331962 0 
0.826472 0.273641 0 
0.809696 0.32216 0 
0.899691 0.263845 0 
0.905137 0.256163 0 
1 0.251112 0 
0.3166 0.921793 0 
0.319972 1 0 
0.407278 0.657716 0 
0.423875 0.585833 0 
0.342096 0.901852 0 
0.344777 0.852746 0 
0.395519 0.759793 0 
0.398528 0.825806 0 
0.417341 0.743741 0 
0.423504 0.675261 0 
0.512081 0.52859 0 
0.489631 0.584553 0 
0.596379 0.468447 0 
0.570926 0.526389 0 
0.653896 0.462504 0 
0.665237 0.471639 0 
0.756972 0.420051 0 
0.738487 0.462432 0 
0.83883 0.366048 0 
0.816286 0.414144 0 
0.899924 0.362562 0 
0.917721 0.337179 0 
1 0.336371 0 
0.403438 0.928649 0 
0.40342 1 0 
0.514981 0.623863 0 
0.491338 0.670263 0 
0.439752 0.848748 0 
0.443893 0.90127 0 
0.492067 0.814269 0 
0.48341 0.764636 0 
0.520463 0.723974 0 
0.600206 0.568444 0 
0.568529 0.624073 0 
0.653095 0.56993 0 
0.673026 0.549618 0 
0.739422 0.554752 0 
0.76657 0.510675 0 
0.818859 0.510367 0 
0.846481 0.461501 0 
0.900713 0.460025 0 
0.924004 0.423718 0 
1 0.422758 0 
0.491598 0.924401 0 
0.49079 1 0 
0.561614 0.727361 0 
0.597136 0.668063 0 
0.536117 0.835889 0 
0.531578 0.90362 0 
0.585842 0.761079 0 
0.567778 0.821834 0 
0.674518 0.641251 0 
0.64932 0.67066 0 
0.73304 0.643224 0 
0.76063 0.603399 0 
0.846572 0.556227 0 
0.817611 0.606664 0 
0.901331 0.556925 0 
0.926989 0.5122 0 
1 0.51194 0 
0.579918 0.928935 0 
0.580292 1 0 
0.67182 0.735651 0 
0.653038 0.760275 0 
0.627521 0.856305 0 
0.628016 0.9009 0 
0.668771 0.822592 0 
0.757618 0.699624 0 
0.731106 0.735446 0 
0.813126 0.701259 0 
0.841473 0.649099 0 
0.901056 0.6514 0 
0.925781 0.600657 0 
1 0.601136 0 
0.668961 0.927049 0 
0.670399 1 0 
0.757061 0.79823 0 
0.717851 0.836102 0 
0.732506 0.898428 0 
0.806157 0.804424 0 
0.83743 0.740428 0 
0.899751 0.743969 0 
0.921833 0.68664 0 
1 0.687957 0 
0.752074 0.90932 0 
0.756957 1 0 
0.823366 0.828903 0 
0.808507 0.89558 0 
0.900662 0.831503 0 
0.915817 0.76915 0 
1 0.770105 0 
0.83916 0.921365 0 
0.832381 1 0 
0.911511 0.847522 0 
0.90261 0.908672 0 
1 0.848323 0 
0.920515 0.927455 0 
0.916804 1 0 
1 0.920249 0 
1 1 0 
CELLS 128 853
6 168 171 190 191 183 169 6 211 212 214 228 227 225 5 5 13 15 14 6 
7 14 15 28 30 32 31 16 4 43 77 78 44 6 210 209 211 225 226 220 
5 178 179 180 200 199 6 184 183 191 204 203 189 7 19 18 33 35 26 24 
20 5 13 27 29 28 15 5 36 37 63 62 54 4 102 103 132 131 6 228 
229 240 239 238 227 6 52 61 86 85 84 51 6 59 60 91 93 86 61 5 
240 241 248 247 239 6 39 38 49 71 70 45 6 120 119 124 147 148 122 5 
158 162 181 182 159 6 121 122 148 149 145 123 5 41 73 74 75 42 5 201 
206 218 219 202 6 150 151 174 175 173 172 6 79 80 105 111 112 82 5 218 
223 232 233 219 5 242 245 249 250 243 6 197 198 216 215 213 196 6 48 47 
79 82 81 72 4 138 158 159 133 7 170 172 173 193 192 190 171 6 117 123 
145 146 144 118 6 135 143 161 160 141 134 5 216 217 231 230 215 5 67 68 
101 100 97 6 175 174 177 197 196 195 6 226 225 227 238 237 234 5 251 253 
256 254 252 5 68 69 103 102 101 5 4 3 9 10 11 6 75 74 106 108 
109 76 6 62 63 65 95 94 88 5 167 184 189 188 166 6 163 165 185 186 
181 162 6 152 154 176 177 174 151 5 23 46 47 48 40 5 98 99 128 129 
126 6 7 6 14 16 17 8 4 254 256 257 255 5 37 64 66 65 63 6 
49 50 51 84 83 71 6 244 246 251 252 249 245 6 31 32 58 60 59 34 
5 22 39 45 46 23 6 65 66 96 99 98 95 5 181 186 201 202 182 6 
96 97 100 127 128 99 6 58 57 90 92 91 60 6 190 192 209 210 204 191 
6 222 224 235 236 232 223 5 142 164 165 163 139 6 161 169 183 184 167 160 
7 94 95 98 126 125 124 119 5 11 10 19 20 12 6 204 210 220 221 207 
203 5 32 30 56 57 58 6 192 193 194 212 211 209 7 141 160 167 166 164 
142 140 6 194 195 196 213 214 212 5 3 2 7 8 9 6 213 215 230 229 
228 214 6 56 55 87 89 90 57 6 90 89 120 122 121 92 6 221 220 226 
234 235 224 5 230 231 241 240 229 6 33 34 59 61 52 35 6 185 187 205 
206 201 186 5 21 25 38 39 22 5 130 131 132 157 156 5 0 1 2 3 
4 6 25 24 26 50 49 38 5 1 5 6 7 2 6 148 147 150 172 170 
149 6 164 166 188 187 185 165 6 104 116 135 134 111 105 5 247 248 253 251 
246 6 100 101 102 131 130 127 6 125 126 129 153 154 152 6 81 82 112 113 
114 107 6 46 45 70 80 79 47 6 145 149 170 171 168 146 7 128 127 130 
156 155 153 129 5 207 221 224 222 208 7 137 139 163 162 158 138 136 6 70 
71 83 104 105 80 5 40 48 72 73 41 5 77 76 109 110 78 6 106 107 
114 137 136 108 6 53 54 62 88 87 55 5 155 156 157 180 179 5 42 75 
76 77 43 7 188 189 203 207 208 205 187 5 27 36 54 53 29 5 198 199 
200 217 216 6 177 176 178 199 198 197 6 28 29 53 55 56 30 6 17 16 
31 34 33 18 6 73 72 81 107 106 74 6 238 239 247 246 244 237 6 86 
93 117 118 115 85 6 205 208 222 223 218 206 6 144 146 168 169 161 143 5 
249 252 254 255 250 6 111 134 141 140 113 112 6 9 8 17 18 19 10 5 
64 67 97 96 66 7 235 234 237 244 245 242 236 6 153 155 179 178 176 154 
6 115 118 144 143 135 116 5 26 35 52 51 50 6 113 140 142 139 137 114 
6 91 92 121 123 117 93 6 84 85 115 116 104 83 5 173 175 195 194 193 
5 232 236 242 243 233 6 109 108 136 138 133 110 6 87 88 94 119 120 89 
6 124 125 152 151 150 147 5 12 20 24 25 21 
CELL_TYPES 128
7
7
7
7
9
7
7
7
7
7
7
9
7
7
7
7
7
7
7
7
7
7
7
7
7
7
7
7
9
7
7
7
7
7
7
7
7
7
7
7
7
7
7
7
7
7
7
9
7
7
7
7
7
7
7
7
7
7
7
7
7
7
7
7
7
7
7
7
7
7
7
7
7
7
7
7
7
7
7
7
7
7
7
7
7
7
7
7
7
7
7
7
7
7
7
7
7
7
7
7
7
7
7
7
7
7
7
7
7
7
7
7
7
7
7
7
7
7
7
7
7
7
7
7
7
7
7
7
CELL_DATA 128
SCALARS U double 1
LOOKUP_TABLE default
0.962903 
0.551685 
0.107295 
0.332768 
0.0160476 
0.667987 
0.149606 
0.848453 
0.330547 
0.133469 
0.150217 
0.0469714 
0.326685 
0.710155 
0.747807 
0.12267 
0.369189 
0.79197 
0.139652 
0.931321 
0.0942188 
0.151207 
0.787661 
0.560296 
0.140484 
0.101545 
0.386886 
0.329912 
0.101295 
0.915998 
0.975155 
0.870033 
0.151465 
0.0681773 
0.607312 
0.449041 
0.0559995 
0.0264736 
0.0630735 
0.164605 
0.382664 
0.775169 
0.358055 
0.581595 
0.13907 
0.406712 
0.221377 
0.0152049 
0.138214 
0.574597 
0.161529 
0.558398 
0.144296 
0.319049 
0.151597 
0.228867 
0.716 
0.856278 
0.330518 
0.5274 
0.906297 
0.57287 
0.108285 
0.715628 
0.51734 
0.764166 
0.734553 
0.599159 
0.11866 
0.370035 
0.586049 
0.791926 
0.513043 
0.141102 
0.55684 
0.392978 
0.135603 
0.102792 
0.0249912 
0.339984 
0.0610363 
0.89882 
0.594311 
0.768328 
0.0941254 
0.137385 
0.513674 
0.463163 
0.368754 
0.990679 
0.286175 
0.535625 
0.309983 
0.596453 
0.122235 
0.0579331 
0.317412 
0.381469 
0.136693 
0.0564861 
0.637261 
0.138194 
0.154497 
0.380069 
0.346649 
0.391615 
0.262144 
0.257906 
0.87737 
0.372289 
0.982134 
0.0548565 
0.682625 
0.220781 
0.105963 
0.293536 
0.347137 
0.917541 
0.512123 
0.524187 
0.881616 
0.778127 
0.77701 
0.129059 
0.126507 
0.615194 
0.72041 
0.131847 
SCALARS U_approx double 1
LOOKUP_TABLE default
0.952903 
0.561685 
0.0972951 
0.342768 
0.00604758 
0.677987 
0.139606 
0.858453 
0.320547 
0.143469 
0.140217 
0.0569714 
0.316685 
0.720155 
0.737807 
0.13267 
0.359189 
0.80197 
0.129652 
0.941321 
0.0842188 
0.161207 
0.777661 
0.570296 
0.130484 
0.111545 
0.376886 
0.339912 
0.0912948 
0.925998 
0.965155 
0.880033 
0.141465 
0.0781773 
0.597312 
0.459041 
0.0459995 
0.0364736 
0.0530735 
0.174605 
0.372664 
0.785169 
0.348055 
0.591595 
0.12907 
0.416712 
0.211377 
0.0252049 
0.128214 
0.584597 
0.151529 
0.568398 
0.134296 
0.329049 
0.141597 
0.238867 
0.706 
0.866278 
0.320518 
0.5374 
0.896297 
0.58287 
0.0982846 
0.725628 
0.50734 
0.774166 
0.724553 
0.609159 
0.10866 
0.380035 
0.576049 
0.801926 
0.503043 
0.151102 
0.54684 
0.402978 
0.125603 
0.112792 
0.0149912 
0.349984 
0.0510363 
0.90882 
0.584311 
0.778328 
0.0841254 
0.147385 
0.503674 
0.473163 
0.358754 
1.00068 
0.276175 
0.545625 
0.299983 
0.606453 
0.112235 
0.0679331 
0.307412 
0.391469 
0.126693 
0.0664861 
0.627261 
0.148194 
0.144497 
0.390069 
0.336649 
0.401615 
0.252144 
0.267906 
0.86737 
0.382289 
0.972134 
0.0648565 
0.672625 
0.230781 
0.0959628 
0.303536 
0.337137 
0.927541 
0.502123 
0.534187 
0.871616 
0.788127 
0.76701 
0.139059 
0.116507 
0.625194 
0.71041 
0.141847 
SCALARS X_Coord double 1
LOOKUP_TABLE default
0.542726 
0.78725 
0.260402 
0.30794 
0.0411795 
0.702904 
0.94833 
0.542344 
0.140045 
0.360467 
0.563061 
0.961646 
0.869111 
0.274416 
0.341235 
0.94748 
0.120568 
0.598606 
0.357105 
0.526297 
0.0515632 
0.534835 
0.700602 
0.207704 
0.625517 
0.797816 
0.873491 
0.125777 
0.278374 
0.630395 
0.449927 
0.373909 
0.95082 
0.849787 
0.790609 
0.783749 
0.946927 
0.944556 
0.0459697 
0.129332 
0.612866 
0.467211 
0.395414 
0.781953 
0.0478473 
0.757209 
0.205091 
0.95933 
0.656567 
0.19905 
0.864303 
0.315544 
0.0462571 
0.703094 
0.446628 
0.798722 
0.410714 
0.623801 
0.673938 
0.355087 
0.458435 
0.668984 
0.0509047 
0.619795 
0.384298 
0.705622 
0.377683 
0.791611 
0.117205 
0.872304 
0.473361 
0.505788 
0.699941 
0.949734 
0.246603 
0.489168 
0.0443784 
0.945796 
0.0538475 
0.118408 
0.158452 
0.615544 
0.43777 
0.289308 
0.945598 
0.887742 
0.768627 
0.20724 
0.124042 
0.538656 
0.853961 
0.62059 
0.294072 
0.204576 
0.0498053 
0.117771 
0.210428 
0.518083 
0.94451 
0.0513963 
0.535327 
0.46403 
0.950341 
0.87104 
0.417775 
0.223273 
0.128993 
0.863864 
0.361481 
0.578488 
0.456348 
0.882294 
0.29055 
0.129579 
0.752059 
0.771074 
0.865389 
0.370459 
0.193527 
0.285181 
0.434378 
0.284739 
0.716548 
0.716179 
0.204622 
0.568091 
0.688383 
0.0488708 
POINT_DATA 258
SCALARS Cell_count int 1
LOOKUP_TABLE default
1 
2 
3 
3 
2 
2 
3 
3 
3 
3 
3 
2 
2 
2 
3 
3 
3 
3 
3 
3 
3 
2 
2 
2 
3 
3 
3 
2 
3 
3 
3 
3 
3 
3 
3 
3 
2 
2 
3 
3 
2 
2 
2 
2 
1 
3 
3 
3 
3 
3 
3 
3 
3 
3 
3 
3 
3 
3 
3 
3 
3 
3 
3 
3 
2 
3 
3 
2 
2 
1 
3 
3 
3 
3 
3 
3 
3 
3 
2 
3 
3 
3 
3 
3 
3 
3 
3 
3 
3 
3 
3 
3 
3 
3 
3 
3 
3 
3 
3 
3 
3 
3 
3 
2 
3 
3 
3 
3 
3 
3 
2 
3 
3 
3 
3 
3 
3 
3 
3 
3 
3 
3 
3 
3 
3 
3 
3 
3 
3 
3 
3 
3 
2 
2 
3 
3 
3 
3 
3 
3 
3 
3 
3 
3 
3 
3 
3 
3 
3 
3 
3 
3 
3 
3 
3 
3 
3 
2 
3 
2 
3 
3 
3 
3 
3 
3 
3 
3 
3 
3 
3 
3 
3 
3 
3 
3 
3 
3 
3 
3 
2 
3 
2 
3 
3 
3 
3 
3 
3 
3 
3 
3 
3 
3 
3 
3 
3 
3 
3 
3 
2 
3 
2 
3 
3 
3 
3 
3 
3 
3 
3 
3 
3 
3 
3 
3 
3 
2 
3 
2 
3 
3 
3 
3 
3 
3 
3 
3 
3 
3 
3 
2 
3 
2 
3 
3 
3 
3 
3 
3 
3 
2 
3 
2 
3 
3 
3 
3 
2 
3 
2 
3 
3 
2 
3 
2 
2 
1 
