# vtk DataFile Version 3.0
file is written by INMOST
ASCII
DATASET UNSTRUCTURED_GRID
POINTS 107 double
0 0 0 
1 0 0 
1 1 0 
0 1 0 
0.125 0 0 
0.25 0 0 
0.375 0 0 
0.5 0 0 
0.625 0 0 
0.75 0 0 
0.875 0 0 
1 0.125 0 
1 0.25 0 
1 0.375 0 
1 0.5 0 
1 0.625 0 
1 0.75 0 
1 0.875 0 
0.875 1 0 
0.75 1 0 
0.625 1 0 
0.5 1 0 
0.375 1 0 
0.25 1 0 
0.125 1 0 
0 0.875 0 
0 0.75 0 
0 0.625 0 
0 0.5 0 
0 0.375 0 
0 0.25 0 
0 0.125 0 
0.5 0.5 0 
0.696958 0.70605 0 
0.30094 0.312975 0 
0.708333 0.291667 0 
0.29643 0.69778 0 
0.794889 0.501674 0 
0.491394 0.211474 0 
0.218542 0.508995 0 
0.493965 0.789907 0 
0.829904 0.168068 0 
0.168068 0.170096 0 
0.831932 0.829904 0 
0.170096 0.831932 0 
0.431428 0.349692 0 
0.360119 0.568452 0 
0.639881 0.568452 0 
0.830816 0.364485 0 
0.846329 0.639235 0 
0.633633 0.830602 0 
0.364385 0.848123 0 
0.360765 0.153671 0 
0.629215 0.175092 0 
0.153671 0.360765 0 
0.153671 0.639235 0 
0.626374 0.421699 0 
0.481763 0.639881 0 
0.317118 0.416805 0 
0.568735 0.308396 0 
0.582495 0.685397 0 
0.908541 0.461341 0 
0.111476 0.462164 0 
0.53741 0.907501 0 
0.536012 0.0939135 0 
0.40367 0.721192 0 
0.733897 0.402655 0 
0.896004 0.264401 0 
0.737912 0.892756 0 
0.901639 0.730409 0 
0.265289 0.0993728 0 
0.731776 0.103977 0 
0.0993728 0.734711 0 
0.270194 0.901938 0 
0.0983609 0.269591 0 
0.744314 0.603955 0 
0.385372 0.253241 0 
0.257218 0.604786 0 
0.525663 0.400752 0 
0.444503 0.912972 0 
0.441078 0.0862124 0 
0.913403 0.555294 0 
0.0900099 0.556125 0 
0.401041 0.474928 0 
0.0971151 0.0971151 0 
0.902885 0.0971151 0 
0.902885 0.902885 0 
0.0971151 0.902885 0 
0.74349 0.796283 0 
0.273302 0.209354 0 
0.796952 0.257659 0 
0.209514 0.718128 0 
0.707871 0.499687 0 
0.284166 0.790461 0 
0.79411 0.717639 0 
0.203696 0.288937 0 
0.739236 0.199293 0 
0.550388 0.592448 0 
0.227833 0.410839 0 
0.927291 0.81764 0 
0.181094 0.0733168 0 
0.182481 0.927351 0 
0.0727088 0.18236 0 
0.817913 0.073832 0 
0.0733168 0.818906 0 
0.925758 0.180917 0 
0.819546 0.925109 0 
CELLS 180 720
3 32 56 47 3 38 59 45 3 47 97 32 3 39 58 46 3 35 59 53 
3 53 59 38 3 50 60 33 3 40 60 50 3 32 57 46 3 46 65 36 
3 59 78 45 3 53 96 35 3 48 67 13 3 55 72 27 3 52 70 6 
3 15 69 49 3 8 71 53 3 50 68 20 3 22 73 51 3 29 74 54 
3 57 65 46 3 37 81 49 3 52 80 38 3 40 79 51 3 55 82 39 
3 33 60 47 3 13 61 48 3 53 64 8 3 54 62 29 3 20 63 50 
3 45 58 34 3 58 83 46 3 13 67 12 3 16 69 15 3 23 73 22 
3 6 70 5 3 27 72 26 3 30 74 29 3 9 71 8 3 20 68 19 
3 56 92 47 3 51 65 40 3 46 83 32 3 27 82 55 3 6 80 52 
3 49 81 15 3 51 79 22 3 34 76 45 3 36 77 46 3 45 76 38 
3 46 77 39 3 47 75 33 3 48 61 37 3 38 64 53 3 50 63 40 
3 48 66 35 3 37 66 48 3 56 59 35 3 33 88 50 3 35 90 48 
3 38 76 52 3 39 77 55 3 49 75 37 3 38 80 64 3 63 79 40 
3 39 82 62 3 61 81 37 3 32 78 56 3 35 66 56 3 76 89 52 
3 77 91 55 3 14 61 13 3 8 64 7 3 21 63 20 3 29 62 28 
3 51 93 65 3 36 91 77 3 34 89 76 3 57 60 40 3 78 83 45 
3 65 93 36 3 32 83 78 3 40 65 57 3 32 97 57 3 34 98 95 
3 4 84 0 3 0 84 31 3 1 85 10 3 25 87 3 3 11 85 1 
3 2 86 17 3 18 86 2 3 3 87 24 3 60 97 47 3 58 98 34 
3 45 83 58 3 95 98 54 3 54 98 62 3 62 98 39 3 57 97 60 
3 75 94 33 3 49 94 75 3 56 78 59 3 75 92 37 3 47 92 75 
3 28 82 27 3 15 81 14 3 22 79 21 3 7 80 6 3 39 98 58 
3 5 100 4 3 10 103 9 3 12 105 11 3 24 101 23 3 31 102 30 
3 17 99 16 3 19 106 18 3 26 104 25 3 21 79 63 3 62 82 28 
3 64 80 7 3 14 81 61 3 48 90 67 3 52 89 70 3 50 88 68 
3 55 91 72 3 41 96 71 3 42 95 74 3 44 93 73 3 43 94 69 
3 88 94 43 3 89 95 42 3 90 96 41 3 91 93 44 3 37 92 66 
3 66 92 56 3 42 100 70 3 74 102 42 3 43 106 68 3 41 105 67 
3 44 104 72 3 73 101 44 3 71 103 41 3 69 99 43 3 70 89 42 
3 67 90 41 3 72 91 44 3 68 88 43 3 70 100 5 3 67 105 12 
3 9 103 71 3 30 102 74 3 72 104 26 3 68 106 19 3 16 99 69 
3 23 101 73 3 73 93 51 3 69 94 49 3 74 95 54 3 71 96 53 
3 43 99 86 3 44 101 87 3 41 103 85 3 85 105 41 3 42 102 84 
3 84 100 42 3 86 106 43 3 87 104 44 3 34 95 89 3 33 94 88 
3 36 93 91 3 35 96 90 3 86 99 17 3 85 103 10 3 4 100 84 
3 25 104 87 3 84 102 31 3 87 101 24 3 11 105 85 3 18 106 86 

CELL_TYPES 180
5
5
5
5
5
5
5
5
5
5
5
5
5
5
5
5
5
5
5
5
5
5
5
5
5
5
5
5
5
5
5
5
5
5
5
5
5
5
5
5
5
5
5
5
5
5
5
5
5
5
5
5
5
5
5
5
5
5
5
5
5
5
5
5
5
5
5
5
5
5
5
5
5
5
5
5
5
5
5
5
5
5
5
5
5
5
5
5
5
5
5
5
5
5
5
5
5
5
5
5
5
5
5
5
5
5
5
5
5
5
5
5
5
5
5
5
5
5
5
5
5
5
5
5
5
5
5
5
5
5
5
5
5
5
5
5
5
5
5
5
5
5
5
5
5
5
5
5
5
5
5
5
5
5
5
5
5
5
5
5
5
5
5
5
5
5
5
5
5
5
5
5
5
5
5
5
5
5
5
5
CELL_DATA 180
SCALARS U double 1
LOOKUP_TABLE default
0.961329 
0.789843 
0.966334 
0.806396 
0.660808 
0.652167 
0.660486 
0.648504 
0.962943 
0.781629 
0.894843 
0.52865 
0.244954 
0.226954 
0.226954 
0.226652 
0.251587 
0.247907 
0.225377 
0.226652 
0.868755 
0.440215 
0.444627 
0.443434 
0.454742 
0.802168 
0.256447 
0.26525 
0.260507 
0.257921 
0.805776 
0.903272 
0.0872172 
0.0828405 
0.0826279 
0.0834116 
0.0834116 
0.0828405 
0.0874598 
0.089767 
0.879204 
0.602577 
0.967885 
0.23835 
0.234474 
0.235154 
0.234137 
0.753973 
0.756483 
0.738013 
0.753818 
0.756864 
0.461003 
0.475722 
0.467321 
0.617512 
0.603351 
0.800066 
0.530352 
0.523618 
0.580609 
0.591064 
0.580358 
0.398468 
0.396656 
0.425631 
0.390499 
0.970335 
0.761868 
0.526911 
0.535464 
0.0942287 
0.0967951 
0.0953175 
0.114783 
0.554265 
0.612843 
0.612644 
0.798083 
0.948367 
0.631673 
0.988618 
0.770315 
0.97 
0.605608 
0.0234019 
0.0234019 
0.0234019 
0.0234019 
0.0234019 
0.0234019 
0.0234019 
0.0234019 
0.89708 
0.720233 
0.899414 
0.515338 
0.47456 
0.54731 
0.899318 
0.611025 
0.532036 
0.901563 
0.704961 
0.800692 
0.0924307 
0.0889506 
0.0893888 
0.0884918 
0.706561 
0.0421845 
0.0425473 
0.0427034 
0.0418931 
0.0419195 
0.0419195 
0.0430445 
0.0421845 
0.186861 
0.209395 
0.187457 
0.185353 
0.382944 
0.376429 
0.385504 
0.378992 
0.316686 
0.326661 
0.328681 
0.325689 
0.389032 
0.402795 
0.375089 
0.407979 
0.7133 
0.814153 
0.210769 
0.210828 
0.215153 
0.213711 
0.210769 
0.210824 
0.21435 
0.210828 
0.324116 
0.316901 
0.327389 
0.317965 
0.11984 
0.123492 
0.123919 
0.119501 
0.11984 
0.125747 
0.119501 
0.119353 
0.379689 
0.376831 
0.376982 
0.388463 
0.15717 
0.157183 
0.157582 
0.157621 
0.15717 
0.15727 
0.157756 
0.15727 
0.546334 
0.523741 
0.543787 
0.502132 
0.0727097 
0.073139 
0.0727526 
0.0727526 
0.0727097 
0.0727047 
0.0731128 
0.0733077 
SCALARS U_approx double 1
LOOKUP_TABLE default
0.951329 
0.799843 
0.956334 
0.816396 
0.650808 
0.662167 
0.650486 
0.658504 
0.952943 
0.791629 
0.884843 
0.53865 
0.234954 
0.236954 
0.216954 
0.236652 
0.241587 
0.257907 
0.215377 
0.236652 
0.858755 
0.450215 
0.434627 
0.453434 
0.444742 
0.812168 
0.246447 
0.27525 
0.250507 
0.267921 
0.795776 
0.913272 
0.0772172 
0.0928405 
0.0726279 
0.0934116 
0.0734116 
0.0928405 
0.0774598 
0.099767 
0.869204 
0.612577 
0.957885 
0.24835 
0.224474 
0.245154 
0.224137 
0.763973 
0.746483 
0.748013 
0.743818 
0.766864 
0.451003 
0.485722 
0.457321 
0.627512 
0.593351 
0.810066 
0.520352 
0.533618 
0.570609 
0.601064 
0.570358 
0.408468 
0.386656 
0.435631 
0.380499 
0.980335 
0.751868 
0.536911 
0.525464 
0.104229 
0.0867951 
0.105317 
0.104783 
0.564265 
0.602843 
0.622644 
0.788083 
0.958367 
0.621673 
0.998618 
0.760315 
0.98 
0.595608 
0.0334019 
0.0134019 
0.0334019 
0.0134019 
0.0334019 
0.0134019 
0.0334019 
0.0134019 
0.90708 
0.710233 
0.909414 
0.505338 
0.48456 
0.53731 
0.909318 
0.601025 
0.542036 
0.891563 
0.714961 
0.790692 
0.102431 
0.0789506 
0.0993888 
0.0784918 
0.716561 
0.0321845 
0.0525473 
0.0327034 
0.0518931 
0.0319195 
0.0519195 
0.0330445 
0.0521845 
0.176861 
0.219395 
0.177457 
0.195353 
0.372944 
0.386429 
0.375504 
0.388992 
0.306686 
0.336661 
0.318681 
0.335689 
0.379032 
0.412795 
0.365089 
0.417979 
0.7033 
0.824153 
0.200769 
0.220828 
0.205153 
0.223711 
0.200769 
0.220824 
0.20435 
0.220828 
0.314116 
0.326901 
0.317389 
0.327965 
0.10984 
0.133492 
0.113919 
0.129501 
0.10984 
0.135747 
0.109501 
0.129353 
0.369689 
0.386831 
0.366982 
0.398463 
0.14717 
0.167183 
0.147582 
0.167621 
0.14717 
0.16727 
0.147756 
0.16727 
0.536334 
0.533741 
0.533787 
0.512132 
0.0627097 
0.083139 
0.0627526 
0.0827526 
0.0627097 
0.0827047 
0.0631128 
0.0833077 
SCALARS X_Coord double 1
LOOKUP_TABLE default
0.588752 
0.497185 
0.563423 
0.298593 
0.635428 
0.563114 
0.637695 
0.570031 
0.447294 
0.353406 
0.508609 
0.692262 
0.90894 
0.084348 
0.333685 
0.915989 
0.661997 
0.665515 
0.336526 
0.0840107 
0.415184 
0.85154 
0.431079 
0.434284 
0.154074 
0.639778 
0.913119 
0.596742 
0.0883822 
0.598681 
0.349829 
0.359426 
0.965335 
0.967213 
0.298398 
0.296763 
0.0331243 
0.032787 
0.702259 
0.704304 
0.658042 
0.420673 
0.420387 
0.081227 
0.392281 
0.919911 
0.394629 
0.37258 
0.304589 
0.436065 
0.278626 
0.693718 
0.844748 
0.552207 
0.555003 
0.757682 
0.786534 
0.634481 
0.69136 
0.778701 
0.41251 
0.20981 
0.795177 
0.489495 
0.491959 
0.140009 
0.872278 
0.550679 
0.689535 
0.339813 
0.206801 
0.969514 
0.553671 
0.554137 
0.0371585 
0.35074 
0.254388 
0.319871 
0.519408 
0.452711 
0.328089 
0.475568 
0.459799 
0.510717 
0.244157 
0.0740384 
0.0323717 
0.925962 
0.0323717 
0.967628 
0.967628 
0.925962 
0.0740384 
0.590921 
0.281964 
0.383196 
0.195067 
0.164327 
0.18595 
0.538215 
0.745127 
0.794918 
0.57359 
0.749025 
0.697355 
0.0300033 
0.971134 
0.439834 
0.438693 
0.254498 
0.185365 
0.814304 
0.975253 
0.185827 
0.0242363 
0.975764 
0.814849 
0.0244389 
0.493971 
0.0671618 
0.492364 
0.940648 
0.841257 
0.299785 
0.705012 
0.154186 
0.766972 
0.156708 
0.241485 
0.84256 
0.789844 
0.215022 
0.788697 
0.221259 
0.745552 
0.68938 
0.204817 
0.113046 
0.796463 
0.883889 
0.114262 
0.20759 
0.793197 
0.886954 
0.235553 
0.840953 
0.159661 
0.771111 
0.232128 
0.940587 
0.766563 
0.0570233 
0.0575632 
0.769153 
0.942977 
0.234225 
0.306248 
0.847359 
0.151909 
0.700076 
0.887369 
0.149897 
0.850234 
0.886182 
0.112631 
0.148759 
0.851454 
0.113509 
0.259313 
0.744853 
0.26337 
0.748174 
0.943392 
0.865266 
0.134403 
0.0568106 
0.056608 
0.134865 
0.942881 
0.86581 
POINT_DATA 107
SCALARS Cell_count int 1
LOOKUP_TABLE default
2 
2 
2 
2 
3 
3 
4 
3 
4 
3 
3 
3 
3 
4 
3 
4 
3 
3 
3 
3 
4 
3 
4 
3 
3 
3 
3 
4 
3 
4 
3 
3 
7 
6 
6 
7 
5 
7 
7 
7 
7 
7 
7 
7 
7 
7 
8 
7 
7 
6 
7 
6 
6 
7 
5 
6 
7 
6 
6 
6 
6 
5 
6 
5 
5 
6 
5 
6 
6 
6 
6 
6 
6 
6 
6 
6 
5 
5 
5 
5 
5 
5 
5 
5 
6 
6 
6 
6 
5 
6 
5 
6 
5 
6 
6 
6 
5 
4 
6 
5 
5 
5 
5 
5 
5 
5 
5 
