# vtk DataFile Version 3.0
file is written by INMOST
ASCII
DATASET UNSTRUCTURED_GRID
POINTS 190 double
1 0.98394 0 
1 1 0 
1 0.942989 0 
0.969616 0.953954 0 
0.975664 0.977215 0 
0.96661 1 0 
1 0.853472 0 
0.986315 0.859261 0 
0.934074 0.925553 0 
0.944813 0.945199 0 
0.923226 1 0 
1 0.752715 0 
1 0.682438 0 
1 0.573153 0 
0.885978 0.768968 0 
0.853246 0.842778 0 
0.85264 0.877675 0 
0.887608 0.918563 0 
0.870745 1 0 
0.784164 0.825052 0 
0.719947 0.869521 0 
1 0.483828 0 
0.921537 0.476152 0 
0.882172 0.56728 0 
0.833258 0.68542 0 
0.877088 0.642167 0 
0.810352 0.686236 0 
0.764073 0.769061 0 
0.759245 0.982731 0 
0.714539 0.91122 0 
0.760639 1 0 
0.564677 0.931106 0 
0.657791 0.808721 0 
0.698754 0.758399 0 
0.5732 0.893074 0 
4.23705e-11 1 0 
1 -5.69192e-12 0 
1 0.363201 0 
0.884295 0.413769 0 
0.900892 0.385849 0 
0.801763 0.530354 0 
0.831186 0.426368 0 
0.784175 0.474153 0 
0.772003 0.661891 0 
0.747123 0.595752 0 
0.688895 0.696123 0 
0.534794 0.969558 0 
0.531983 1 0 
0.322857 1 0 
0.174689 1 0 
0.432527 0.864218 0 
0.522864 0.74466 0 
0.525557 0.729128 0 
0.622338 0.659964 0 
0.556185 0.721832 0 
0.168951 0.971445 0 
0.0911033 0.898128 0 
-1.005e-11 0.913452 0 
1 0.236541 0 
1 0.0970447 0 
0.966582 0.0862798 0 
0.968843 -5.48939e-12 0 
0.957183 0.231636 0 
0.872029 0.303061 0 
0.907061 0.185465 0 
0.7733 0.334466 0 
0.821819 0.286834 0 
0.656055 0.574764 0 
0.725784 0.458239 0 
0.718766 0.450377 0 
0.72022 0.339617 0 
0.631187 0.589522 0 
0.640488 0.579301 0 
0.507548 0.716322 0 
0.359033 0.851355 0 
0.330015 0.888984 0 
0.21745 0.872935 0 
0.349859 0.814081 0 
0.360508 0.781424 0 
0.503657 0.561692 0 
0.490773 0.69276 0 
0.200311 0.840475 0 
0.125734 0.821764 0 
0.103425 0.776731 0 
-7.16002e-12 0.792686 0 
0.895384 0.0910568 0 
0.839921 0.0980295 0 
0.887796 -6.9974e-12 0 
0.79545 0.209079 0 
0.782951 0.168828 0 
0.664902 0.261576 0 
0.688882 0.317816 0 
0.603595 0.477398 0 
0.625615 0.436636 0 
0.610356 0.399173 0 
0.567868 0.377839 0 
0.525743 0.485089 0 
0.493121 0.547585 0 
0.402298 0.660337 0 
0.348844 0.703076 0 
0.24011 0.770921 0 
0.279737 0.674164 0 
0.419224 0.53669 0 
0.384945 0.590293 0 
0.152154 0.716562 0 
0.113037 0.751275 0 
0.155075 0.704831 0 
0.0359642 0.673073 0 
-7.16002e-12 0.678758 0 
0.713941 0.114598 0 
0.717195 0.0703081 0 
0.749507 0.0139715 0 
0.750623 -4.61452e-12 0 
0.655837 0.255441 0 
0.649806 0.159671 0 
0.579695 0.268986 0 
0.575884 0.117906 0 
0.515847 0.24234 0 
0.401898 0.505279 0 
0.497975 0.402615 0 
0.501638 0.395512 0 
0.491665 0.372558 0 
0.435204 0.426696 0 
0.446565 0.341097 0 
0.30124 0.593904 0 
0.266015 0.651652 0 
0.255492 0.650168 0 
0.324295 0.467869 0 
0.28217 0.544736 0 
0.173238 0.576605 0 
0.0824532 0.623842 0 
0.124994 0.629192 0 
0.0556259 0.577912 0 
-4.22257e-12 0.58211 0 
0.45904 0.138377 0 
0.567157 0.0947967 0 
0.585293 0.045654 0 
0.496887 0.0903331 0 
0.581966 -4.6145e-12 0 
0.508093 0.23484 0 
0.494584 0.221408 0 
0.452883 0.272133 0 
0.371749 0.37384 0 
0.401592 0.279036 0 
0.399834 0.343488 0 
0.334026 0.349115 0 
0.240454 0.455645 0 
0.272231 0.367375 0 
0.246324 0.395585 0 
0.175384 0.545447 0 
0.197915 0.530399 0 
0.216621 0.468331 0 
0.115018 0.507423 0 
0.07293 0.525123 0 
-3.27422e-12 0.481981 0 
0.369596 0.195249 0 
0.425661 0.133424 0 
0.397681 0.0852226 0 
0.447492 0.034131 0 
0.447189 -6.43246e-12 0 
0.357442 0.199002 0 
0.349889 0.246095 0 
0.334246 0.260804 0 
0.249085 0.268469 0 
0.24003 0.32164 0 
0.144487 0.395689 0 
0.151615 0.346674 0 
0.116287 0.419103 0 
3.30645e-11 0.397261 0 
0.317792 0.154831 0 
0.350841 0.0850121 0 
0.316086 0.143498 0 
0.315573 4.06072e-11 0 
0.219005 0.230014 0 
0.223134 0.211138 0 
0.1281 0.304362 0 
0.16366 0.246189 0 
0.0815139 0.294081 0 
4.46585e-11 0.348628 0 
0.180932 0.121764 0 
0.219696 0.0818127 0 
0.231114 4.06072e-11 0 
0.123655 0.127302 0 
0.117445 0.198089 0 
0.0610307 0.231339 0 
3.92465e-11 0.198418 0 
0.107148 0.11761 0 
0.0664494 5.04306e-11 0 
3.92465e-11 0.163797 0 
-6.13293e-12 5.04305e-11 0 
CELLS 100 640
6 75 74 50 46 47 48 5 168 167 152 153 154 6 167 165 151 150 149 152 
5 63 62 58 37 39 5 68 42 40 44 67 7 79 71 53 54 52 73 80 
7 153 152 149 129 131 130 132 4 185 184 177 178 6 42 41 38 22 23 40 
5 91 70 69 93 94 4 142 122 118 127 5 33 27 19 20 32 6 187 181 
180 179 182 186 7 174 169 160 161 162 163 173 6 114 109 89 88 90 113 5 
9 3 4 5 10 6 20 19 15 16 28 29 6 65 66 63 39 38 41 5 
45 43 26 27 33 6 96 92 72 71 79 97 7 44 40 23 25 24 26 43 
5 181 172 170 171 180 5 133 132 130 107 108 4 143 141 123 144 5 163 162 
145 147 164 6 103 102 97 79 80 98 5 179 180 171 169 174 4 3 2 0 
4 5 51 52 54 32 34 5 157 158 137 134 156 4 189 187 186 188 6 162 
161 143 144 142 145 5 57 56 55 49 35 6 31 29 28 30 47 46 6 135 
136 110 109 114 116 4 165 148 146 151 5 54 53 45 33 32 5 99 98 80 
73 78 5 38 39 37 21 22 4 23 13 12 25 5 110 111 86 89 109 5 
184 183 176 175 177 4 4 0 1 5 6 107 130 131 106 104 105 4 131 129 
126 106 6 127 118 102 103 124 128 5 172 159 158 157 170 5 32 20 29 31 
34 6 182 179 174 173 176 183 6 124 103 98 99 101 125 7 129 149 150 128 
124 125 126 7 78 73 52 51 50 74 77 6 90 88 66 65 70 91 6 115 
113 90 91 94 95 7 142 144 123 121 120 119 122 7 178 177 175 166 165 167 
168 6 100 77 74 75 76 81 5 84 83 82 56 57 5 76 75 48 49 55 
5 88 64 62 63 66 6 26 24 14 15 19 27 5 16 15 7 8 17 5 
111 112 87 85 86 6 188 186 182 183 184 185 4 148 147 127 146 6 7 6 
2 3 9 8 6 158 159 138 136 135 137 5 14 11 6 7 15 5 151 146 
127 128 150 5 141 139 117 121 123 6 85 60 59 58 62 64 4 156 134 140 
155 5 108 107 105 83 84 4 147 145 142 127 7 119 120 95 94 93 92 96 
6 83 105 104 100 81 82 5 16 17 18 30 28 6 70 65 41 42 68 69 
4 61 36 59 60 5 166 164 147 148 165 6 126 125 101 100 104 106 4 87 
61 60 85 6 92 93 69 68 67 72 6 122 119 96 97 102 118 5 117 115 
95 120 121 7 170 157 156 155 160 169 171 5 138 112 111 110 136 6 134 137 
135 116 139 140 7 71 72 67 44 43 45 53 5 86 85 64 88 89 4 22 
21 13 23 5 17 8 9 10 18 5 50 51 34 31 46 5 24 25 12 11 
14 6 176 173 163 164 166 175 5 101 99 78 77 100 6 116 114 113 115 117 
139 4 154 153 132 133 7 160 155 140 139 141 143 161 5 82 81 76 55 56 

CELL_TYPES 100
7
7
7
7
7
7
7
9
7
7
9
7
7
7
7
7
7
7
7
7
7
7
7
9
7
7
7
9
7
7
9
7
7
7
7
9
7
7
7
9
7
7
9
7
9
7
7
7
7
7
7
7
7
7
7
7
7
7
7
7
7
7
7
7
9
7
7
7
7
7
7
9
7
9
7
7
7
7
9
7
7
9
7
7
7
7
7
7
7
7
9
7
7
7
7
7
7
9
7
7
CELL_DATA 100
SCALARS U double 1
LOOKUP_TABLE default
0.213946 
0.188923 
0.483188 
0.137791 
0.719997 
0.855113 
0.342919 
0.0833642 
0.450821 
0.804491 
0.91882 
0.435049 
0.108768 
0.515558 
0.453537 
0.0106963 
0.225092 
0.416725 
0.558263 
0.970635 
0.50126 
0.151838 
0.100546 
0.802533 
0.651745 
0.940562 
0.307771 
0.00477841 
0.624529 
0.293554 
0.0297967 
0.751991 
0.0366641 
0.0964889 
0.283019 
0.602403 
0.675684 
0.76508 
0.178108 
0.175555 
0.197008 
0.24386 
0.00138251 
0.285727 
0.47795 
0.887277 
0.120721 
0.322902 
0.286882 
0.773025 
0.65139 
0.610848 
0.571154 
0.76678 
0.917291 
0.248566 
0.374325 
0.0959847 
0.11521 
0.273363 
0.359878 
0.1065 
0.0666028 
0.109836 
0.729146 
0.0232109 
0.137964 
0.0940119 
0.712024 
0.79399 
0.0667202 
0.504769 
0.116982 
0.80271 
0.954009 
0.300106 
0.0718942 
0.662051 
0.00727397 
0.561035 
0.531216 
0.0304331 
0.87363 
0.9917 
0.858867 
0.392451 
0.0692741 
0.452258 
0.783023 
0.214149 
0.153079 
0.03599 
0.36541 
0.200025 
0.443905 
0.594344 
0.600889 
0.099929 
0.652309 
0.176722 
SCALARS U_approx double 1
LOOKUP_TABLE default
0.203946 
0.198923 
0.473188 
0.147791 
0.709997 
0.865113 
0.332919 
0.0933642 
0.440821 
0.814491 
0.90882 
0.445049 
0.0987676 
0.525558 
0.443537 
0.0206963 
0.215092 
0.426725 
0.548263 
0.980635 
0.49126 
0.161838 
0.0905463 
0.812533 
0.641745 
0.950562 
0.297771 
0.0147784 
0.614529 
0.303554 
0.0197967 
0.761991 
0.0266641 
0.106489 
0.273019 
0.612403 
0.665684 
0.77508 
0.168108 
0.185555 
0.187008 
0.25386 
-0.00861749 
0.295727 
0.46795 
0.897277 
0.110721 
0.332902 
0.276882 
0.783025 
0.64139 
0.620848 
0.561154 
0.77678 
0.907291 
0.258566 
0.364325 
0.105985 
0.10521 
0.283363 
0.349878 
0.1165 
0.0566028 
0.119836 
0.719146 
0.0332109 
0.127964 
0.104012 
0.702024 
0.80399 
0.0567202 
0.514769 
0.106982 
0.81271 
0.944009 
0.310106 
0.0618942 
0.672051 
-0.00272603 
0.571035 
0.521216 
0.0404331 
0.86363 
1.0017 
0.848867 
0.402451 
0.0592741 
0.462258 
0.773023 
0.224149 
0.143079 
0.04599 
0.35541 
0.210025 
0.433905 
0.604344 
0.590889 
0.109929 
0.642309 
0.186722 
SCALARS X_Coord double 1
LOOKUP_TABLE default
0.418535 
0.060847 
0.160952 
0.946021 
0.74298 
0.548178 
0.114235 
0.0356362 
0.850855 
0.672768 
0.383287 
0.724946 
0.154832 
0.292942 
0.710481 
0.955986 
0.78063 
0.847253 
0.746815 
0.566298 
0.81768 
0.286662 
0.0348087 
0.425218 
0.285924 
0.449003 
0.251528 
0.98632 
0.567119 
0.445352 
0.0433993 
0.365223 
0.0869487 
0.644313 
0.634879 
0.211971 
0.644792 
0.421994 
0.941345 
0.939815 
0.760703 
0.11035 
0.985568 
0.110613 
0.1772 
0.352295 
0.391755 
0.646031 
0.171305 
0.330513 
0.235922 
0.436842 
0.744096 
0.627923 
0.449233 
0.0888576 
0.282796 
0.0640524 
0.242792 
0.870708 
0.821845 
0.902777 
0.824646 
0.0682131 
0.270826 
0.97247 
0.520997 
0.945108 
0.252291 
0.483011 
0.954368 
0.43722 
0.0504851 
0.325575 
0.561827 
0.155795 
0.826175 
0.758905 
0.983856 
0.210937 
0.224764 
0.929651 
0.661717 
0.462194 
0.531343 
0.362157 
0.676917 
0.516941 
0.679727 
0.844153 
0.950927 
0.912093 
0.525612 
0.919265 
0.191916 
0.315812 
0.58086 
0.032139 
0.419154 
0.16071 
POINT_DATA 190
SCALARS Cell_count int 1
LOOKUP_TABLE default
2 
1 
2 
3 
3 
2 
2 
3 
3 
3 
2 
2 
2 
2 
3 
4 
3 
3 
2 
3 
3 
2 
3 
4 
3 
3 
3 
3 
3 
3 
2 
3 
4 
3 
3 
1 
1 
2 
3 
3 
3 
3 
3 
3 
3 
3 
3 
2 
2 
2 
3 
3 
3 
3 
3 
3 
3 
2 
2 
2 
3 
2 
3 
3 
3 
3 
3 
3 
3 
3 
3 
3 
3 
3 
3 
3 
3 
3 
3 
3 
3 
3 
3 
3 
2 
4 
3 
2 
4 
3 
3 
3 
3 
3 
3 
3 
3 
3 
3 
3 
4 
3 
3 
3 
3 
3 
3 
3 
2 
3 
3 
3 
2 
3 
3 
3 
3 
3 
3 
3 
3 
3 
3 
3 
3 
3 
3 
5 
3 
3 
3 
3 
3 
2 
3 
3 
3 
3 
2 
4 
3 
3 
4 
3 
3 
3 
3 
4 
3 
3 
3 
3 
3 
3 
2 
3 
3 
3 
3 
2 
3 
3 
3 
3 
3 
4 
3 
3 
2 
3 
3 
3 
2 
3 
3 
3 
3 
3 
2 
3 
3 
2 
3 
3 
3 
2 
3 
2 
2 
1 
